# vtk DataFile Version 2.0
Self-made vtk file for exercise 3.4: visualize raw data
ASCII
DATASET UNSTRUCTURED_GRID
POINTS 16 float
0.6744 0.1113 0.7300
0.5362 0.2407 0.8091
0.3671 0.3744 0.8515
0.1866 0.4948 0.8487
0.0175 0.5904 0.8069
-0.1259 0.6597 0.7409
-0.2399 0.7078 0.6644
-0.3273 0.7412 0.5860
-0.3929 0.7654 0.5096
-0.4409 0.7843 0.4364
-0.4746 0.8005 0.3661
-0.4958 0.8159 0.2973
-0.5053 0.8321 0.2287
-0.5023 0.8501 0.1581
-0.4845 0.8708 0.0830
-0.4472 0.8944 0.0000

POINT_DATA 16
VECTORS vectorPoints float
0.8798 0.0573 -0.4718
0.9105 0.1226 -0.3950
0.9299 0.1968 -0.3107
0.9345 0.2806 -0.2189
0.9194 0.3746 -0.1200
0.8781 0.4783 -0.0154
0.8029 0.5890 0.0916
0.6864 0.7007 0.1944
0.5248 0.8028 0.2831
0.3230 0.8813 0.3449
0.0976 0.9243 0.3690
-0.1271 0.9275 0.3515
-0.3287 0.8966 0.2968
-0.4943 0.8425 0.2141
-0.6198 0.7766 0.1128
-0.7071 0.7071 -0.0000